# vtk DataFile Version 2.0
PFLOTRAN output
ASCII
DATASET UNSTRUCTURED_GRID
CELL_DATA   72329
SCALARS Liquid_Pressure      float 1
LOOKUP_TABLE default
 2.000000E+06  1.999999E+06  1.999999E+06  1.999999E+06  1.999999E+06  1.999999E+06  1.999999E+06  1.999999E+06  1.999999E+06  1.999999E+06
 1.999999E+06  1.999999E+06  1.999999E+06  1.999999E+06  1.999999E+06  1.999999E+06  1.999999E+06  1.999999E+06  1.999999E+06  1.999999E+06
 2.000000E+06  1.999999E+06  1.999999E+06  1.999999E+06  1.999999E+06  1.999999E+06  1.999999E+06  1.999999E+06  1.999999E+06  1.999999E+06
 1.999999E+06  1.999999E+06  1.999999E+06  1.999999E+06  1.999999E+06  1.999999E+06  1.999999E+06  1.999999E+06  1.999999E+06  1.999999E+06
 1.999999E+06  1.999999E+06  1.999999E+06  1.999999E+06  1.999999E+06  1.999999E+06  1.999999E+06  1.999999E+06  1.999999E+06  1.999999E+06
 1.999999E+06  1.999999E+06  1.999999E+06  1.999999E+06  1.999999E+06  1.999999E+06  1.999999E+06  1.999999E+06  1.999999E+06  1.999999E+06
 1.999999E+06  1.999999E+06  1.999999E+06  1.999999E+06  1.999999E+06  1.999999E+06  1.999999E+06  1.999999E+06  1.999999E+06  1.999999E+06
 1.999999E+06  1.999999E+06  1.999999E+06  1.999999E+06  1.999999E+06  1.999999E+06  1.999999E+06  1.999999E+06  1.999999E+06  1.999999E+06
 1.999999E+06  1.999999E+06  1.999999E+06  1.999999E+06  1.999999E+06  1.999999E+06  1.999999E+06  1.999999E+06  1.999999E+06  1.999999E+06
 1.999999E+06  1.999999E+06  1.999999E+06  1.999999E+06  1.999999E+06  1.999999E+06  1.999999E+06  1.999999E+06  1.999999E+06  1.999999E+06
 1.999999E+06  1.999999E+06  1.999999E+06  1.999999E+06  1.999999E+06  1.999999E+06  1.999999E+06  1.999999E+06  1.999999E+06  1.999999E+06
 1.999999E+06  1.999999E+06  1.999999E+06  1.999999E+06  1.999999E+06  1.999999E+06  1.999999E+06  1.999999E+06  1.999999E+06  1.999999E+06
 1.999999E+06  1.999999E+06  1.999999E+06  1.999999E+06  1.999999E+06  1.999999E+06  1.999999E+06  1.999999E+06  1.999999E+06  1.999999E+06
 1.999999E+06  1.999999E+06  1.999999E+06  1.999999E+06  1.999999E+06  1.999999E+06  1.999999E+06  1.999999E+06  1.999999E+06  1.999999E+06
 1.999999E+06  1.999999E+06  1.999999E+06  1.999999E+06  1.999999E+06  1.999999E+06  1.999999E+06  1.999999E+06  1.999999E+06  1.999999E+06
 1.999999E+06  1.999999E+06  1.999999E+06  1.999999E+06  1.999999E+06  1.999999E+06  1.999999E+06  1.999999E+06  1.999999E+06  1.999999E+06
 1.999999E+06  1.999999E+06  1.999999E+06  1.999999E+06  1.999999E+06  1.999999E+06  1.999999E+06  1.999999E+06  1.999999E+06  1.999999E+06
 1.999999E+06  1.999999E+06  1.999999E+06  1.999999E+06  1.999999E+06  1.999999E+06  1.999999E+06  1.999999E+06  1.999999E+06  1.999999E+06
 1.999999E+06  1.999999E+06  1.999999E+06  1.999999E+06  1.999999E+06  1.999999E+06  1.999999E+06  1.999999E+06  1.999999E+06  1.999999E+06
 1.999999E+06  1.999999E+06  1.999999E+06  1.999999E+06  1.999999E+06  1.999999E+06  1.999999E+06  1.999999E+06  1.999999E+06  1.999999E+06
 1.999999E+06  1.999999E+06  1.999999E+06  1.999999E+06  1.999999E+06  1.999999E+06  1.999999E+06  1.999999E+06  1.999999E+06  1.999999E+06
 1.999999E+06  1.999999E+06  1.999999E+06  1.999999E+06  1.999999E+06  1.999999E+06  1.999999E+06  1.999999E+06  1.999999E+06  1.999999E+06
 1.999999E+06  1.999999E+06  1.999999E+06  1.999999E+06  1.999999E+06  1.999999E+06  1.999999E+06  1.999999E+06  1.999999E+06  1.999999E+06
 1.999999E+06  1.999999E+06  1.999999E+06  1.999999E+06  1.999999E+06  1.999999E+06  1.999999E+06  1.999999E+06  1.999999E+06  1.999999E+06
 1.999999E+06  1.999999E+06  1.999999E+06  1.999999E+06  1.999999E+06  1.999999E+06  1.999999E+06  1.999999E+06  1.999999E+06  1.999999E+06
 1.999999E+06  1.999999E+06  1.999999E+06  1.999999E+06  1.999999E+06  1.999999E+06  1.999999E+06  1.999999E+06  1.999999E+06  1.999999E+06
 1.999999E+06  1.999999E+06  1.999999E+06  1.999999E+06  1.999999E+06  1.999999E+06  1.999999E+06  1.999999E+06  1.999999E+06  1.999999E+06
 1.999999E+06  1.999999E+06  1.999999E+06  1.999999E+06  1.999999E+06  1.999999E+06  1.999999E+06  1.999999E+06  1.999999E+06  1.999999E+06
 1.999999E+06  1.999999E+06  1.999999E+06  1.999999E+06  1.999999E+06  1.999999E+06  1.999999E+06  1.999999E+06  1.999999E+06  1.999999E+06
 1.999999E+06  1.999999E+06  1.999999E+06  1.999999E+06  1.999999E+06  1.999999E+06  1.999999E+06  1.999999E+06  1.999999E+06  1.999999E+06
 1.999999E+06  1.999999E+06  1.999999E+06  1.999999E+06  1.999999E+06  1.999999E+06  1.999999E+06  1.999999E+06  1.999999E+06  1.999999E+06
 1.999999E+06  1.999999E+06  1.999999E+06  1.999999E+06  1.999999E+06  1.999999E+06  1.999999E+06  1.999999E+06  1.999999E+06  1.999999E+06
 1.999999E+06  1.999999E+06  1.999999E+06  1.999999E+06  1.999999E+06  1.999999E+06  1.999999E+06  1.999999E+06  1.999999E+06  1.999999E+06
 1.999999E+06  1.999999E+06  1.999999E+06  1.999999E+06  1.999999E+06  1.999999E+06  1.999999E+06  1.999999E+06  1.999999E+06  1.999999E+06
 1.999999E+06  1.999999E+06  1.999999E+06  1.999999E+06  1.999999E+06  1.999999E+06  1.999999E+06  1.999999E+06  1.999999E+06  1.999999E+06
 1.999999E+06  1.999999E+06  1.999999E+06  1.999999E+06  1.999999E+06  1.999999E+06  1.999999E+06  1.999999E+06  1.999999E+06  1.999999E+06
 1.999999E+06  1.999999E+06  1.999999E+06  1.999999E+06  1.999999E+06  1.999999E+06  1.999999E+06  1.999999E+06  1.999999E+06  1.999999E+06
 1.999999E+06  1.999999E+06  1.999999E+06  1.999999E+06  1.999999E+06  1.999999E+06  1.999999E+06  1.999999E+06  1.999999E+06  1.999999E+06
 1.999999E+06  1.999999E+06  1.999999E+06  1.999999E+06  1.999999E+06  1.999999E+06  1.999999E+06  1.999999E+06  1.999999E+06  1.999999E+06
 1.999999E+06  1.999999E+06  1.999999E+06  1.999999E+06  1.999999E+06  1.999999E+06  1.999999E+06  1.999999E+06  1.999999E+06  1.999999E+06
 1.999999E+06  1.999999E+06  1.999999E+06  1.999999E+06  1.999999E+06  1.999999E+06  1.999999E+06  1.999999E+06  1.999999E+06  1.999999E+06
 1.999999E+06  1.999999E+06  1.999999E+06  1.999999E+06  1.999999E+06  1.999999E+06  1.999999E+06  1.999999E+06  1.999999E+06  1.999999E+06
 2.000000E+06  1.999999E+06  1.999999E+06  1.999999E+06  1.999999E+06  1.999999E+06  1.999999E+06  1.999999E+06  1.999999E+06  1.999999E+06
 1.999999E+06  1.999999E+06  1.999999E+06  1.999999E+06  1.999999E+06  1.999999E+06  1.999999E+06  1.999999E+06  1.999999E+06  1.999999E+06
 2.000000E+06  1.899466E+06  1.899451E+06  1.899408E+06  1.899342E+06  1.899260E+06  1.899173E+06  1.899096E+06  1.899041E+06  1.899020E+06
 1.899037E+06  1.899091E+06  1.899173E+06  1.899273E+06  1.899379E+06  1.899481E+06  1.899573E+06  1.899649E+06  1.899708E+06  1.899750E+06
 1.899775E+06  1.899784E+06  1.899452E+06  1.899436E+06  1.899390E+06  1.899317E+06  1.899227E+06  1.899130E+06  1.899043E+06  1.898981E+06
 1.898956E+06  1.898974E+06  1.899032E+06  1.899122E+06  1.899231E+06  1.899346E+06  1.899457E+06  1.899555E+06  1.899637E+06  1.899700E+06
 1.899744E+06  1.899770E+06  1.899779E+06  1.899414E+06  1.899395E+06  1.899337E+06  1.899245E+06  1.899128E+06  1.899002E+06  1.898885E+06
 1.898799E+06  1.898762E+06  1.898782E+06  1.898854E+06  1.898967E+06  1.899104E+06  1.899248E+06  1.899384E+06  1.899503E+06  1.899600E+06
 1.899674E+06  1.899725E+06  1.899755E+06  1.899765E+06  1.899356E+06  1.899330E+06  1.899254E+06  1.899131E+06  1.898971E+06  1.898793E+06
 1.898625E+06  1.898498E+06  1.898440E+06  1.898460E+06  1.898554E+06  1.898707E+06  1.898891E+06  1.899084E+06  1.899263E+06  1.899417E+06
 1.899540E+06  1.899632E+06  1.899695E+06  1.899731E+06  1.899743E+06  1.899286E+06  1.899252E+06  1.899152E+06  1.898987E+06  1.898769E+06
 1.898520E+06  1.898280E+06  1.898096E+06  1.898005E+06  1.898022E+06  1.898144E+06  1.898347E+06  1.898597E+06  1.898856E+06  1.899096E+06
 1.899299E+06  1.899459E+06  1.899576E+06  1.899655E+06  1.899700E+06  1.899715E+06  1.899214E+06  1.899172E+06  1.899045E+06  1.898834E+06
 1.898549E+06  1.898218E+06  1.897894E+06  1.897640E+06  1.897507E+06  1.897514E+06  1.897658E+06  1.897914E+06  1.898238E+06  1.898578E+06
 1.898893E+06  1.899156E+06  1.899361E+06  1.899509E+06  1.899607E+06  1.899663E+06  1.899681E+06  1.899154E+06  1.899103E+06  1.898952E+06
 1.898697E+06  1.898349E+06  1.897940E+06  1.897534E+06  1.897211E+06  1.897030E+06  1.897016E+06  1.897169E+06  1.897464E+06  1.897854E+06
 1.898275E+06  1.898668E+06  1.898998E+06  1.899253E+06  1.899436E+06  1.899556E+06  1.899624E+06  1.899646E+06  1.899115E+06  1.899059E+06
 1.898890E+06  1.898604E+06  1.898209E+06  1.897740E+06  1.897269E+06  1.896886E+06  1.896657E+06  1.896612E+06  1.896753E+06  1.897063E+06
 1.897496E+06  1.897983E+06  1.898449E+06  1.898843E+06  1.899147E+06  1.899364E+06  1.899506E+06  1.899586E+06  1.899611E+06  1.899105E+06
 1.899047E+06  1.898870E+06  1.898570E+06  1.898153E+06  1.897651E+06  1.897138E+06  1.896709E+06  1.896435E+06  1.896352E+06  1.896467E+06
 1.896768E+06  1.897216E+06  1.897743E+06  1.898263E+06  1.898710E+06  1.899056E+06  1.899303E+06  1.899464E+06  1.899554E+06  1.899582E+06
 1.899126E+06  1.899069E+06  1.898895E+06  1.898599E+06  1.898184E+06  1.897677E+06  1.897147E+06  1.896687E+06  1.896376E+06  1.896255E+06
 1.896335E+06  1.896612E+06  1.897053E+06  1.897593E+06  1.898142E+06  1.898620E+06  1.898994E+06  1.899261E+06  1.899434E+06  1.899531E+06
 1.899562E+06  1.899174E+06  1.899121E+06  1.898959E+06  1.898683E+06  1.898291E+06  1.897805E+06  1.897284E+06  1.896814E+06  1.896478E+06
 1.896323E+06  1.896367E+06  1.896611E+06  1.897029E+06  1.897558E+06  1.898105E+06  1.898589E+06  1.898970E+06  1.899243E+06  1.899422E+06
 1.899521E+06  1.899553E+06  1.899244E+06  1.899197E+06  1.899054E+06  1.898808E+06  1.898457E+06  1.898016E+06  1.897531E+06  1.897077E+06
 1.896733E+06  1.896553E+06  1.896562E+06  1.896767E+06  1.897147E+06  1.897642E+06  1.898160E+06  1.898623E+06  1.898990E+06  1.899255E+06
 1.899428E+06  1.899525E+06  1.899556E+06  1.899328E+06  1.899288E+06  1.899167E+06  1.898959E+06  1.898662E+06  1.898286E+06  1.897862E+06
 1.897451E+06  1.897122E+06  1.896931E+06  1.896909E+06  1.897068E+06  1.897394E+06  1.897832E+06  1.898297E+06  1.898715E+06  1.899049E+06
 1.899292E+06  1.899453E+06  1.899543E+06  1.899572E+06  1.899416E+06  1.899384E+06  1.899287E+06  1.899120E+06  1.898882E+06  1.898580E+06
 1.898235E+06  1.897891E+06  1.897602E+06  1.897419E+06  1.897373E+06  1.897483E+06  1.897742E+06  1.898104E+06  1.898496E+06  1.898852E+06
 1.899140E+06  1.899352E+06  1.899493E+06  1.899573E+06  1.899599E+06  1.899503E+06  1.899478E+06  1.899403E+06  1.899275E+06  1.899094E+06
 1.898864E+06  1.898602E+06  1.898335E+06  1.898104E+06  1.897946E+06  1.897892E+06  1.897960E+06  1.898149E+06  1.898425E+06  1.898732E+06
 1.899016E+06  1.899249E+06  1.899424E+06  1.899542E+06  1.899610E+06  1.899632E+06  1.899582E+06  1.899564E+06  1.899508E+06  1.899413E+06
 1.899280E+06  1.899114E+06  1.898924E+06  1.898730E+06  1.898558E+06  1.898437E+06  1.898387E+06  1.898426E+06  1.898555E+06  1.898750E+06
 1.898973E+06  1.899185E+06  1.899365E+06  1.899502E+06  1.899596E+06  1.899651E+06  1.899669E+06  1.899650E+06  1.899636E+06  1.899595E+06
 1.899527E+06  1.899432E+06  1.899315E+06  1.899182E+06  1.899046E+06  1.898926E+06  1.898838E+06  1.898799E+06  1.898821E+06  1.898904E+06
 1.899035E+06  1.899189E+06  1.899340E+06  1.899472E+06  1.899575E+06  1.899648E+06  1.899691E+06  1.899705E+06  1.899704E+06  1.899694E+06
 1.899664E+06  1.899614E+06  1.899547E+06  1.899464E+06  1.899372E+06  1.899279E+06  1.899196E+06  1.899135E+06  1.899107E+06  1.899119E+06
 1.899172E+06  1.899258E+06  1.899362E+06  1.899467E+06  1.899562E+06  1.899638E+06  1.899693E+06  1.899726E+06  1.899738E+06  1.899742E+06
 1.899735E+06  1.899712E+06  1.899676E+06  1.899626E+06  1.899566E+06  1.899500E+06  1.899434E+06  1.899376E+06  1.899333E+06  1.899313E+06
 1.899320E+06  1.899355E+06  1.899413E+06  1.899484E+06  1.899559E+06  1.899628E+06  1.899686E+06  1.899728E+06  1.899754E+06  1.899763E+06
 1.899765E+06  1.899759E+06  1.899741E+06  1.899711E+06  1.899672E+06  1.899625E+06  1.899573E+06  1.899523E+06  1.899478E+06  1.899445E+06
 1.899429E+06  1.899434E+06  1.899460E+06  1.899503E+06  1.899556E+06  1.899614E+06  1.899669E+06  1.899715E+06  1.899750E+06  1.899771E+06
 1.899778E+06  1.899773E+06  1.899767E+06  1.899751E+06  1.899723E+06  1.899687E+06  1.899644E+06  1.899597E+06  1.899551E+06  1.899511E+06
 1.899481E+06  1.899467E+06  1.899471E+06  1.899494E+06  1.899532E+06  1.899580E+06  1.899632E+06  1.899682E+06  1.899725E+06  1.899757E+06
 1.899777E+06  1.899784E+06  1.798982E+06  1.798954E+06  1.798872E+06  1.798745E+06  1.798587E+06  1.798419E+06  1.798269E+06  1.798165E+06
 1.798126E+06  1.798161E+06  1.798266E+06  1.798426E+06  1.798619E+06  1.798822E+06  1.799017E+06  1.799191E+06  1.799335E+06  1.799447E+06
 1.799526E+06  1.799573E+06  1.799588E+06  1.798957E+06  1.798926E+06  1.798837E+06  1.798696E+06  1.798520E+06  1.798332E+06  1.798162E+06
 1.798041E+06  1.797995E+06  1.798032E+06  1.798148E+06  1.798324E+06  1.798536E+06  1.798759E+06  1.798971E+06  1.799158E+06  1.799312E+06
 1.799431E+06  1.799514E+06  1.799563E+06  1.799580E+06  1.798884E+06  1.798846E+06  1.798733E+06  1.798553E+06  1.798322E+06  1.798070E+06
 1.797835E+06  1.797665E+06  1.797594E+06  1.797636E+06  1.797784E+06  1.798012E+06  1.798284E+06  1.798566E+06  1.798830E+06  1.799058E+06
 1.799242E+06  1.799382E+06  1.799479E+06  1.799536E+06  1.799554E+06  1.798772E+06  1.798721E+06  1.798570E+06  1.798324E+06  1.798001E+06
 1.797636E+06  1.797287E+06  1.797027E+06  1.796909E+06  1.796957E+06  1.797159E+06  1.797476E+06  1.797853E+06  1.798239E+06  1.798593E+06
 1.798892E+06  1.799128E+06  1.799303E+06  1.799422E+06  1.799491E+06  1.799513E+06  1.798636E+06  1.798569E+06  1.798367E+06  1.798033E+06
 1.797583E+06  1.797057E+06  1.796543E+06  1.796149E+06  1.795960E+06  1.796007E+06  1.796277E+06  1.796716E+06  1.797244E+06  1.797779E+06
 1.798263E+06  1.798663E+06  1.798972E+06  1.799196E+06  1.799346E+06  1.799431E+06  1.799459E+06  1.798498E+06  1.798413E+06  1.798155E+06
 1.797721E+06  1.797119E+06  1.796401E+06  1.795686E+06  1.795130E+06  1.794847E+06  1.794877E+06  1.795206E+06  1.795775E+06  1.796481E+06
 1.797205E+06  1.797852E+06  1.798381E+06  1.798783E+06  1.799068E+06  1.799256E+06  1.799362E+06  1.799396E+06  1.798381E+06  1.798280E+06
 1.797971E+06  1.797441E+06  1.796696E+06  1.795793E+06  1.794887E+06  1.794173E+06  1.793785E+06  1.793769E+06  1.794118E+06  1.794779E+06
 1.795645E+06  1.796562E+06  1.797392E+06  1.798066E+06  1.798573E+06  1.798928E+06  1.799159E+06  1.799288E+06  1.799329E+06  1.798307E+06
 1.798195E+06  1.797849E+06  1.797253E+06  1.796405E+06  1.795366E+06  1.794314E+06  1.793468E+06  1.792977E+06  1.792890E+06  1.793206E+06
 1.793893E+06  1.794856E+06  1.795930E+06  1.796931E+06  1.797749E+06  1.798363E+06  1.798790E+06  1.799064E+06  1.799216E+06  1.799264E+06
 1.798290E+06  1.798174E+06  1.797814E+06  1.797191E+06  1.796299E+06  1.795193E+06  1.794049E+06  1.793102E+06  1.792512E+06  1.792339E+06
 1.792590E+06  1.793245E+06  1.794234E+06  1.795401E+06  1.796532E+06  1.797473E+06  1.798180E+06  1.798669E+06  1.798982E+06  1.799154E+06
 1.799209E+06  1.798333E+06  1.798219E+06  1.797868E+06  1.797259E+06  1.796380E+06  1.795271E+06  1.794091E+06  1.793073E+06  1.792397E+06
 1.792138E+06  1.792308E+06  1.792901E+06  1.793865E+06  1.795061E+06  1.796263E+06  1.797282E+06  1.798051E+06  1.798585E+06  1.798924E+06
 1.799110E+06  1.799170E+06  1.798428E+06  1.798323E+06  1.797999E+06  1.797434E+06  1.796613E+06  1.795560E+06  1.794401E+06  1.793356E+06
 1.792618E+06  1.792280E+06  1.792369E+06  1.792889E+06  1.793801E+06  1.794973E+06  1.796178E+06  1.797213E+06  1.798001E+06  1.798549E+06
 1.798899E+06  1.799091E+06  1.799152E+06  1.798564E+06  1.798472E+06  1.798187E+06  1.797690E+06  1.796962E+06  1.796016E+06  1.794942E+06
 1.793928E+06  1.793164E+06  1.792764E+06  1.792775E+06  1.793212E+06  1.794047E+06  1.795149E+06  1.796292E+06  1.797280E+06  1.798038E+06
 1.798570E+06  1.798910E+06  1.799098E+06  1.799158E+06  1.798724E+06  1.798647E+06  1.798409E+06  1.797994E+06  1.797386E+06  1.796590E+06
 1.795665E+06  1.794750E+06  1.794013E+06  1.793580E+06  1.793514E+06  1.793849E+06  1.794570E+06  1.795550E+06  1.796575E+06  1.797466E+06
 1.798155E+06  1.798642E+06  1.798957E+06  1.799132E+06  1.799187E+06  1.798894E+06  1.798832E+06  1.798643E+06  1.798313E+06  1.797833E+06
 1.797208E+06  1.796472E+06  1.795718E+06  1.795075E+06  1.794655E+06  1.794532E+06  1.794752E+06  1.795319E+06  1.796126E+06  1.796986E+06
 1.797741E+06  1.798332E+06  1.798756E+06  1.799032E+06  1.799187E+06  1.799237E+06  1.799059E+06  1.799012E+06  1.798867E+06  1.798617E+06
 1.798258E+06  1.797792E+06  1.797249E+06  1.796682E+06  1.796178E+06  1.795823E+06  1.795683E+06  1.795807E+06  1.796209E+06  1.796814E+06
 1.797476E+06  1.798072E+06  1.798548E+06  1.798896E+06  1.799127E+06  1.799258E+06  1.799300E+06  1.799209E+06  1.799174E+06  1.799067E+06
 1.798885E+06  1.798625E+06  1.798294E+06  1.797911E+06  1.797512E+06  1.797150E+06  1.796885E+06  1.796765E+06  1.796830E+06  1.797094E+06
 1.797508E+06  1.797977E+06  1.798414E+06  1.798775E+06  1.799046E+06  1.799230E+06  1.799336E+06  1.799370E+06  1.799337E+06  1.799311E+06
 1.799233E+06  1.799103E+06  1.798920E+06  1.798691E+06  1.798429E+06  1.798158E+06  1.797912E+06  1.797726E+06  1.797638E+06  1.797673E+06
 1.797838E+06  1.798105E+06  1.798419E+06  1.798724E+06  1.798985E+06  1.799188E+06  1.799329E+06  1.799412E+06  1.799439E+06  1.799438E+06
 1.799419E+06  1.799363E+06  1.799269E+06  1.799141E+06  1.798982E+06  1.798804E+06  1.798621E+06  1.798456E+06  1.798331E+06  1.798270E+06
 1.798289E+06  1.798392E+06  1.798562E+06  1.798768E+06  1.798976E+06  1.799161E+06  1.799309E+06  1.799415E+06  1.799479E+06  1.799500E+06
 1.799510E+06  1.799496E+06  1.799454E+06  1.799385E+06  1.799291E+06  1.799177E+06  1.799051E+06  1.798924E+06  1.798811E+06  1.798725E+06
 1.798683E+06  1.798695E+06  1.798761E+06  1.798873E+06  1.799012E+06  1.799157E+06  1.799290E+06  1.799400E+06  1.799481E+06  1.799531E+06
 1.799547E+06  1.799554E+06  1.799542E+06  1.799508E+06  1.799453E+06  1.799378E+06  1.799289E+06  1.799191E+06  1.799094E+06  1.799008E+06
 1.798944E+06  1.798913E+06  1.798921E+06  1.798969E+06  1.799050E+06  1.799153E+06  1.799264E+06  1.799368E+06  1.799456E+06  1.799522E+06
 1.799563E+06  1.799577E+06  1.799568E+06  1.799558E+06  1.799526E+06  1.799475E+06  1.799406E+06  1.799325E+06  1.799236E+06  1.799149E+06
 1.799071E+06  1.799014E+06  1.798986E+06  1.798993E+06  1.799035E+06  1.799108E+06  1.799200E+06  1.799299E+06  1.799394E+06  1.799475E+06
 1.799536E+06  1.799574E+06  1.799587E+06  1.698601E+06  1.698562E+06  1.698448E+06  1.698271E+06  1.698050E+06  1.697816E+06  1.697608E+06
 1.697463E+06  1.697413E+06  1.697467E+06  1.697619E+06  1.697845E+06  1.698114E+06  1.698395E+06  1.698663E+06  1.698899E+06  1.699095E+06
 1.699246E+06  1.699352E+06  1.699416E+06  1.699436E+06  1.698566E+06  1.698523E+06  1.698398E+06  1.698200E+06  1.697952E+06  1.697686E+06
 1.697445E+06  1.697276E+06  1.697215E+06  1.697274E+06  1.697443E+06  1.697696E+06  1.697996E+06  1.698306E+06  1.698599E+06  1.698854E+06
 1.699063E+06  1.699224E+06  1.699336E+06  1.699403E+06  1.699425E+06  1.698464E+06  1.698410E+06  1.698249E+06  1.697991E+06  1.697655E+06
 1.697285E+06  1.696939E+06  1.696689E+06  1.696590E+06  1.696662E+06  1.696890E+06  1.697230E+06  1.697627E+06  1.698032E+06  1.698403E+06
 1.698718E+06  1.698969E+06  1.699159E+06  1.699289E+06  1.699365E+06  1.699391E+06  1.698308E+06  1.698234E+06  1.698015E+06  1.697651E+06
 1.697163E+06  1.696602E+06  1.696054E+06  1.695646E+06  1.695473E+06  1.695565E+06  1.695899E+06  1.696403E+06  1.696980E+06  1.697555E+06
 1.698067E+06  1.698488E+06  1.698814E+06  1.699052E+06  1.699213E+06  1.699305E+06  1.699336E+06  1.698118E+06  1.698020E+06  1.697720E+06
 1.697212E+06  1.696513E+06  1.695655E+06  1.694791E+06  1.694133E+06  1.693836E+06  1.693946E+06  1.694425E+06  1.695171E+06  1.696034E+06
 1.696862E+06  1.697587E+06  1.698166E+06  1.698600E+06  1.698907E+06  1.699111E+06  1.699226E+06  1.699263E+06  1.697925E+06  1.697800E+06
 1.697411E+06  1.696735E+06  1.695761E+06  1.694527E+06  1.693257E+06  1.692282E+06  1.691817E+06  1.691912E+06  1.692527E+06  1.693550E+06
 1.694776E+06  1.695972E+06  1.696973E+06  1.697761E+06  1.698336E+06  1.698732E+06  1.698989E+06  1.699132E+06  1.699178E+06  1.697763E+06
 1.697613E+06  1.697141E+06  1.696304E+06  1.695065E+06  1.693465E+06  1.691818E+06  1.690552E+06  1.689910E+06  1.689925E+06  1.690571E+06
 1.691774E+06  1.693331E+06  1.694919E+06  1.696266E+06  1.697299E+06  1.698038E+06  1.698539E+06  1.698857E+06  1.699032E+06  1.699088E+06
 1.697663E+06  1.697496E+06  1.696968E+06  1.696021E+06  1.694600E+06  1.692748E+06  1.690836E+06  1.689354E+06  1.688544E+06  1.688430E+06
 1.688990E+06  1.690203E+06  1.691936E+06  1.693842E+06  1.695530E+06  1.696815E+06  1.697732E+06  1.698344E+06  1.698726E+06  1.698934E+06
 1.699000E+06  1.697644E+06  1.697471E+06  1.696927E+06  1.695948E+06  1.694469E+06  1.692517E+06  1.690454E+06  1.688794E+06  1.687818E+06
 1.687551E+06  1.687970E+06  1.689078E+06  1.690818E+06  1.692899E+06  1.694857E+06  1.696381E+06  1.697459E+06  1.698172E+06  1.698612E+06
 1.698849E+06  1.698924E+06  1.697709E+06  1.697543E+06  1.697019E+06  1.696076E+06  1.694645E+06  1.692723E+06  1.690602E+06  1.688801E+06
 1.687663E+06  1.687242E+06  1.687512E+06  1.688481E+06  1.690138E+06  1.692264E+06  1.694379E+06  1.696065E+06  1.697262E+06  1.698048E+06
 1.698529E+06  1.698788E+06  1.698869E+06  1.697846E+06  1.697695E+06  1.697218E+06  1.696356E+06  1.695047E+06  1.693247E+06  1.691168E+06
 1.689296E+06  1.688027E+06  1.687462E+06  1.687593E+06  1.688436E+06  1.689998E+06  1.692086E+06  1.694219E+06  1.695945E+06  1.697180E+06
 1.697993E+06  1.698492E+06  1.698759E+06  1.698844E+06  1.698038E+06  1.697907E+06  1.697495E+06  1.696750E+06  1.695603E+06  1.694020E+06
 1.692109E+06  1.690274E+06  1.688925E+06  1.688230E+06  1.688221E+06  1.688939E+06  1.690401E+06  1.692384E+06  1.694402E+06  1.696043E+06
 1.697229E+06  1.698018E+06  1.698505E+06  1.698768E+06  1.698850E+06  1.698261E+06  1.698152E+06  1.697813E+06  1.697203E+06  1.696267E+06
 1.694974E+06  1.693367E+06  1.691718E+06  1.690384E+06  1.689596E+06  1.689435E+06  1.689975E+06  1.691257E+06  1.693045E+06  1.694854E+06
 1.696323E+06  1.697395E+06  1.698117E+06  1.698567E+06  1.698812E+06  1.698889E+06  1.698494E+06  1.698408E+06  1.698142E+06  1.697666E+06
 1.696947E+06  1.695975E+06  1.694752E+06  1.693435E+06  1.692278E+06  1.691499E+06  1.691209E+06  1.691519E+06  1.692508E+06  1.693981E+06
 1.695495E+06  1.696734E+06  1.697649E+06  1.698275E+06  1.698670E+06  1.698886E+06  1.698955E+06  1.698720E+06  1.698655E+06  1.698454E+06
 1.698101E+06  1.697578E+06  1.696877E+06  1.696029E+06  1.695093E+06  1.694228E+06  1.693587E+06  1.693273E+06  1.693403E+06  1.694068E+06
 1.695132E+06  1.696271E+06  1.697231E+06  1.697959E+06  1.698470E+06  1.698799E+06  1.698982E+06  1.699041E+06  1.698924E+06  1.698876E+06
 1.698729E+06  1.698476E+06  1.698110E+06  1.697628E+06  1.697051E+06  1.696435E+06  1.695851E+06  1.695405E+06  1.695161E+06  1.695213E+06
 1.695619E+06  1.696301E+06  1.697065E+06  1.697745E+06  1.698286E+06  1.698680E+06  1.698940E+06  1.699088E+06  1.699136E+06  1.699096E+06
 1.699062E+06  1.698956E+06  1.698778E+06  1.698525E+06  1.698202E+06  1.697823E+06  1.697424E+06  1.697049E+06  1.696749E+06  1.696590E+06
 1.696614E+06  1.696853E+06  1.697266E+06  1.697749E+06  1.698203E+06  1.698587E+06  1.698878E+06  1.699077E+06  1.699192E+06  1.699229E+06
 1.699233E+06  1.699208E+06  1.699132E+06  1.699005E+06  1.698829E+06  1.698610E+06  1.698360E+06  1.698101E+06  1.697860E+06  1.697670E+06
 1.697568E+06  1.697582E+06  1.697724E+06  1.697972E+06  1.698273E+06  1.698573E+06  1.698838E+06  1.699047E+06  1.699196E+06  1.699283E+06
 1.699312E+06  1.699331E+06  1.699312E+06  1.699255E+06  1.699162E+06  1.699034E+06  1.698879E+06  1.698706E+06  1.698530E+06  1.698369E+06
 1.698244E+06  1.698179E+06  1.698189E+06  1.698278E+06  1.698435E+06  1.698630E+06  1.698834E+06  1.699020E+06  1.699174E+06  1.699286E+06
 1.699354E+06  1.699377E+06  1.699389E+06  1.699374E+06  1.699328E+06  1.699253E+06  1.699152E+06  1.699031E+06  1.698898E+06  1.698765E+06
 1.698646E+06  1.698555E+06  1.698508E+06  1.698515E+06  1.698579E+06  1.698691E+06  1.698834E+06  1.698986E+06  1.699130E+06  1.699252E+06
 1.699343E+06  1.699399E+06  1.699417E+06  1.699409E+06  1.699395E+06  1.699352E+06  1.699283E+06  1.699191E+06  1.699080E+06  1.698960E+06
 1.698840E+06  1.698733E+06  1.698653E+06  1.698612E+06  1.698618E+06  1.698674E+06  1.698773E+06  1.698899E+06  1.699036E+06  1.699166E+06
 1.699278E+06  1.699362E+06  1.699414E+06  1.699431E+06  1.598363E+06  1.598317E+06  1.598184E+06  1.597976E+06  1.597717E+06  1.597443E+06
 1.597201E+06  1.597037E+06  1.596986E+06  1.597059E+06  1.597245E+06  1.597514E+06  1.597829E+06  1.598156E+06  1.598463E+06  1.598733E+06
 1.598956E+06  1.599128E+06  1.599249E+06  1.599321E+06  1.599344E+06  1.598321E+06  1.598271E+06  1.598123E+06  1.597890E+06  1.597595E+06
 1.597280E+06  1.596995E+06  1.596800E+06  1.596736E+06  1.596817E+06  1.597028E+06  1.597334E+06  1.597689E+06  1.598052E+06  1.598390E+06
 1.598682E+06  1.598921E+06  1.599103E+06  1.599231E+06  1.599306E+06  1.599331E+06  1.598202E+06  1.598137E+06  1.597945E+06  1.597631E+06
 1.597216E+06  1.596761E+06  1.596331E+06  1.596025E+06  1.595916E+06  1.596025E+06  1.596325E+06  1.596756E+06  1.597240E+06  1.597729E+06
 1.598165E+06  1.598528E+06  1.598816E+06  1.599030E+06  1.599178E+06  1.599264E+06  1.599293E+06  1.598017E+06  1.597929E+06  1.597659E+06
 1.597202E+06  1.596595E+06  1.595854E+06  1.595119E+06  1.594580E+06  1.594374E+06  1.594533E+06  1.595011E+06  1.595696E+06  1.596451E+06
 1.597151E+06  1.597773E+06  1.598267E+06  1.598641E+06  1.598911E+06  1.599092E+06  1.599197E+06  1.599231E+06  1.597794E+06  1.597673E+06
 1.597294E+06  1.596658E+06  1.595697E+06  1.594439E+06  1.593110E+06  1.592109E+06  1.591712E+06  1.591947E+06  1.592740E+06  1.593899E+06
 1.595166E+06  1.596306E+06  1.597195E+06  1.597893E+06  1.598398E+06  1.598748E+06  1.598977E+06  1.599107E+06  1.599149E+06  1.597568E+06
 1.597411E+06  1.596915E+06  1.596033E+06  1.594604E+06  1.592636E+06  1.590450E+06  1.588807E+06  1.588136E+06  1.588396E+06  1.589516E+06
 1.591295E+06  1.593295E+06  1.595088E+06  1.596455E+06  1.597411E+06  1.598094E+06  1.598550E+06  1.598840E+06  1.599001E+06  1.599053E+06
 1.597380E+06  1.597191E+06  1.596582E+06  1.595466E+06  1.593566E+06  1.590857E+06  1.587909E+06  1.585788E+06  1.584861E+06  1.584982E+06
 1.586104E+06  1.588221E+06  1.590958E+06  1.593548E+06  1.595529E+06  1.596853E+06  1.597746E+06  1.598329E+06  1.598690E+06  1.598887E+06
 1.598950E+06  1.597267E+06  1.597058E+06  1.596378E+06  1.595111E+06  1.592903E+06  1.589716E+06  1.586336E+06  1.583969E+06  1.582840E+06
 1.582738E+06  1.583599E+06  1.585556E+06  1.588582E+06  1.591858E+06  1.594476E+06  1.596253E+06  1.597374E+06  1.598101E+06  1.598540E+06
 1.598775E+06  1.598849E+06  1.597254E+06  1.597040E+06  1.596348E+06  1.595057E+06  1.592810E+06  1.589539E+06  1.585938E+06  1.583286E+06
 1.581917E+06  1.581584E+06  1.582164E+06  1.583788E+06  1.586643E+06  1.590242E+06  1.593428E+06  1.595664E+06  1.597035E+06  1.597895E+06
 1.598406E+06  1.598677E+06  1.598762E+06  1.597340E+06  1.597137E+06  1.596484E+06  1.595273E+06  1.593184E+06  1.590089E+06  1.586405E+06
 1.583420E+06  1.581768E+06  1.581211E+06  1.581555E+06  1.582877E+06  1.585410E+06  1.589030E+06  1.592619E+06  1.595209E+06  1.596774E+06
 1.597741E+06  1.598307E+06  1.598605E+06  1.598698E+06  1.597509E+06  1.597327E+06  1.596743E+06  1.595666E+06  1.593826E+06  1.590990E+06
 1.587374E+06  1.584176E+06  1.582261E+06  1.581483E+06  1.581634E+06  1.582773E+06  1.585142E+06  1.588684E+06  1.592335E+06  1.595023E+06
 1.596657E+06  1.597668E+06  1.598259E+06  1.598569E+06  1.598666E+06  1.597737E+06  1.597583E+06  1.597090E+06  1.596163E+06  1.594639E+06
 1.592184E+06  1.588894E+06  1.585676E+06  1.583509E+06  1.582478E+06  1.582426E+06  1.583444E+06  1.585813E+06  1.589254E+06  1.592640E+06
 1.595146E+06  1.596708E+06  1.597690E+06  1.598270E+06  1.598576E+06  1.598671E+06  1.597998E+06  1.597873E+06  1.597474E+06  1.596729E+06
 1.595531E+06  1.593628E+06  1.591005E+06  1.588104E+06  1.585783E+06  1.584480E+06  1.584134E+06  1.584877E+06  1.587070E+06  1.590287E+06
 1.593298E+06  1.595503E+06  1.596903E+06  1.597801E+06  1.598338E+06  1.598624E+06  1.598714E+06  1.598268E+06  1.598170E+06  1.597860E+06
 1.597290E+06  1.596416E+06  1.595085E+06  1.593243E+06  1.591072E+06  1.589058E+06  1.587691E+06  1.587023E+06  1.587260E+06  1.588891E+06
 1.591588E+06  1.594152E+06  1.596012E+06  1.597204E+06  1.597981E+06  1.598453E+06  1.598707E+06  1.598787E+06  1.598527E+06  1.598453E+06
 1.598223E+06  1.597812E+06  1.597180E+06  1.596319E+06  1.595145E+06  1.593755E+06  1.592399E+06  1.591325E+06  1.590627E+06  1.590548E+06
 1.591531E+06  1.593367E+06  1.595222E+06  1.596633E+06  1.597574E+06  1.598207E+06  1.598601E+06  1.598816E+06  1.598884E+06  1.598760E+06
 1.598706E+06  1.598540E+06  1.598250E+06  1.597821E+06  1.597237E+06  1.596535E+06  1.595720E+06  1.594915E+06  1.594211E+06  1.593734E+06
 1.593659E+06  1.594189E+06  1.595216E+06  1.596341E+06  1.597284E+06  1.597968E+06  1.598452E+06  1.598763E+06  1.598937E+06  1.598992E+06
 1.598957E+06  1.598918E+06  1.598799E+06  1.598597E+06  1.598306E+06  1.597927E+06  1.597471E+06  1.596984E+06  1.596504E+06  1.596112E+06
 1.595857E+06  1.595830E+06  1.596110E+06  1.596647E+06  1.597280E+06  1.597864E+06  1.598330E+06  1.598685E+06  1.598921E+06  1.599056E+06
 1.599100E+06  1.599112E+06  1.599083E+06  1.598998E+06  1.598855E+06  1.598655E+06  1.598404E+06  1.598113E+06  1.597806E+06  1.597512E+06