# vtk DataFile Version 2.0
PFLOTRAN output
ASCII
DATASET UNSTRUCTURED_GRID
CELL_DATA    1110
SCALARS Liquid_Pressure      float 1
LOOKUP_TABLE default
 1.999999E+06  1.999999E+06  1.999999E+06  1.999999E+06  1.999999E+06  1.999999E+06  1.999999E+06  1.999999E+06  1.999999E+06  1.999999E+06
 1.999999E+06  1.999999E+06  1.999999E+06  1.999999E+06  1.999999E+06  1.999999E+06  1.999999E+06  1.999999E+06  1.999999E+06  1.999999E+06
 1.999999E+06  1.999999E+06  1.999999E+06  1.999999E+06  1.999999E+06  1.999999E+06  1.999999E+06  1.999999E+06  1.999999E+06  1.999999E+06
 1.999999E+06  1.999999E+06  1.999999E+06  1.999999E+06  1.999999E+06  1.999999E+06  1.999999E+06  1.999999E+06  1.999999E+06  1.999999E+06
 1.999999E+06  1.999999E+06  1.999999E+06  1.999999E+06  1.999999E+06  1.999999E+06  1.999999E+06  1.999999E+06  1.999999E+06  1.999999E+06
 1.999999E+06  1.999999E+06  1.999999E+06  1.999999E+06  1.999999E+06  1.999999E+06  1.999999E+06  1.999999E+06  1.999999E+06  1.999999E+06
 1.999999E+06  1.999999E+06  1.999999E+06  1.999999E+06  1.999999E+06  1.999999E+06  1.999999E+06  1.999999E+06  1.999999E+06  1.999999E+06
 1.999999E+06  1.999999E+06  1.999999E+06  1.999999E+06  1.999999E+06  1.999999E+06  1.999999E+06  1.999999E+06  1.999999E+06  1.999999E+06
 1.999999E+06  1.999999E+06  1.999999E+06  1.999999E+06  1.999999E+06  1.999999E+06  1.999999E+06  1.999999E+06  1.999999E+06  1.999999E+06
 1.999999E+06  1.999999E+06  1.999999E+06  1.999999E+06  1.999999E+06  1.999999E+06  1.999999E+06  1.999999E+06  1.999999E+06  1.999999E+06
 1.999999E+06  1.999999E+06  1.999999E+06  1.999999E+06  1.999999E+06  1.999999E+06  1.999999E+06  1.999999E+06  1.999999E+06  1.999999E+06
 1.999999E+06  1.999999E+06  1.999999E+06  1.999999E+06  1.999999E+06  1.999999E+06  1.999999E+06  1.999999E+06  1.999999E+06  1.999999E+06
 1.999999E+06  1.999999E+06  1.999999E+06  1.999999E+06  1.999999E+06  1.999999E+06  1.999999E+06  1.999999E+06  1.999999E+06  1.964984E+06
 1.965095E+06  1.964997E+06  1.964960E+06  1.964898E+06  1.964860E+06  1.964911E+06  1.964936E+06  1.964954E+06  1.964951E+06  1.964936E+06
 1.964918E+06  1.964993E+06  1.964897E+06  1.964873E+06  1.964872E+06  1.964911E+06  1.964953E+06  1.964932E+06  1.964906E+06  1.964898E+06
 1.964930E+06  1.964987E+06  1.964915E+06  1.964923E+06  1.964922E+06  1.964924E+06  1.964918E+06  1.964906E+06  1.964897E+06  1.964916E+06
 1.964911E+06  1.964886E+06  1.964889E+06  1.964925E+06  1.964973E+06  1.964944E+06  1.964912E+06  1.964914E+06  1.964951E+06  1.964842E+06
 1.964850E+06  1.964948E+06  1.964946E+06  1.964909E+06  1.964885E+06  1.964912E+06  1.964853E+06  1.964914E+06  1.964852E+06  1.964932E+06
 1.964855E+06  1.964870E+06  1.964902E+06  1.964896E+06  1.964942E+06  1.964884E+06  1.964921E+06  1.964911E+06  1.964922E+06  1.964902E+06
 1.964893E+06  1.964881E+06  1.964904E+06  1.964896E+06  1.964888E+06  1.964923E+06  1.964890E+06  1.964912E+06  1.964897E+06  1.964891E+06
 1.964889E+06  1.964883E+06  1.964884E+06  1.964898E+06  1.964895E+06  1.964898E+06  1.964883E+06  1.964941E+06  1.964932E+06  1.964909E+06
 1.964877E+06  1.964925E+06  1.964904E+06  1.964929E+06  1.964865E+06  1.964890E+06  1.964863E+06  1.964843E+06  1.964856E+06  1.964892E+06
 1.964875E+06  1.964872E+06  1.964875E+06  1.964871E+06  1.964856E+06  1.964867E+06  1.964875E+06  1.964882E+06  1.964904E+06  1.964910E+06
 1.964912E+06  1.964847E+06  1.964844E+06  1.964883E+06  1.964908E+06  1.964881E+06  1.964891E+06  1.964944E+06  1.964963E+06  1.965003E+06
 1.964883E+06  1.964895E+06  1.964882E+06  1.964904E+06  1.964898E+06  1.964903E+06  1.964904E+06  1.964931E+06  1.964884E+06  1.964893E+06
 1.964935E+06  1.964887E+06  1.964906E+06  1.964873E+06  1.964895E+06  1.964876E+06  1.964874E+06  1.964853E+06  1.935013E+06  1.935133E+06
 1.935110E+06  1.935056E+06  1.935030E+06  1.935059E+06  1.935085E+06  1.935102E+06  1.935104E+06  1.935106E+06  1.935130E+06  1.935135E+06
 1.935145E+06  1.935031E+06  1.935078E+06  1.935105E+06  1.935128E+06  1.935142E+06  1.935149E+06  1.935160E+06  1.935159E+06  1.935127E+06
 1.935122E+06  1.935141E+06  1.935148E+06  1.935142E+06  1.935156E+06  1.935152E+06  1.935133E+06  1.935103E+06  1.935077E+06  1.935069E+06
 1.935078E+06  1.935092E+06  1.935101E+06  1.935111E+06  1.935128E+06  1.935146E+06  1.935140E+06  1.935150E+06  1.935060E+06  1.935059E+06
 1.935114E+06  1.935134E+06  1.935153E+06  1.935172E+06  1.935166E+06  1.935092E+06  1.935107E+06  1.935124E+06  1.935119E+06  1.935145E+06
 1.935151E+06  1.935143E+06  1.935123E+06  1.935157E+06  1.935165E+06  1.935174E+06  1.935151E+06  1.935148E+06  1.935117E+06  1.935154E+06
 1.935089E+06  1.935097E+06  1.935130E+06  1.935102E+06  1.935169E+06  1.935119E+06  1.935127E+06  1.935145E+06  1.935147E+06  1.935153E+06
 1.935159E+06  1.935134E+06  1.935124E+06  1.935121E+06  1.935133E+06  1.935137E+06  1.935153E+06  1.935133E+06  1.935142E+06  1.935145E+06
 1.935148E+06  1.935161E+06  1.935121E+06  1.935115E+06  1.935126E+06  1.935169E+06  1.935162E+06  1.935170E+06  1.935162E+06  1.935148E+06
 1.935113E+06  1.935113E+06  1.935103E+06  1.935091E+06  1.935099E+06  1.935100E+06  1.935124E+06  1.935145E+06  1.935147E+06  1.935160E+06
 1.935158E+06  1.935113E+06  1.935115E+06  1.935109E+06  1.935129E+06  1.935158E+06  1.935124E+06  1.935134E+06  1.935127E+06  1.935121E+06
 1.935131E+06  1.935112E+06  1.935110E+06  1.935120E+06  1.935121E+06  1.935118E+06  1.935134E+06  1.935116E+06  1.935100E+06  1.935112E+06
 1.935102E+06  1.935110E+06  1.935092E+06  1.935096E+06  1.935093E+06  1.935098E+06  1.935081E+06  1.166894E+06  1.234931E+06  1.228881E+06
 1.161622E+06  1.162775E+06  1.191228E+06  1.217837E+06  1.223080E+06  1.224582E+06  1.225616E+06  1.226478E+06  1.228719E+06  1.233059E+06
 1.178639E+06  1.218448E+06  1.226904E+06  1.228022E+06  1.229029E+06  1.230828E+06  1.230324E+06  1.229682E+06  1.228961E+06  1.233944E+06
 1.231030E+06  1.228879E+06  1.227631E+06  1.224801E+06  1.223315E+06  1.222699E+06  1.214041E+06  1.168340E+06  1.167502E+06  1.221770E+06
 1.229799E+06  1.230822E+06  1.229832E+06  1.228345E+06  1.228288E+06  1.229129E+06  1.228889E+06  1.158332E+06  1.194591E+06  1.220592E+06
 1.222048E+06  1.222901E+06  1.208227E+06  1.224205E+06  1.223352E+06  1.226434E+06  1.226685E+06  1.229653E+06  1.226430E+06  1.227550E+06
 1.221791E+06  1.213260E+06  1.231114E+06  1.227734E+06  1.227741E+06  1.226239E+06  1.224271E+06  1.229397E+06  1.228346E+06  1.228144E+06
 1.192362E+06  1.219767E+06  1.225618E+06  1.221852E+06  1.228151E+06  1.227537E+06  1.227334E+06  1.227987E+06  1.228343E+06  1.226774E+06
 1.225400E+06  1.223198E+06  1.222076E+06  1.219804E+06  1.226587E+06  1.215849E+06  1.219540E+06  1.222831E+06  1.223963E+06  1.226547E+06
 1.220742E+06  1.216754E+06  1.221697E+06  1.222408E+06  1.220432E+06  1.222335E+06  1.224919E+06  1.222842E+06  1.218200E+06  1.216622E+06
 1.217512E+06  1.220475E+06  1.215620E+06  1.222479E+06  1.209253E+06  1.193640E+06  1.194235E+06  1.207614E+06  1.219901E+06  1.215555E+06
 1.198550E+06  1.209499E+06  1.207048E+06  1.219207E+06  1.197301E+06  1.206787E+06  1.184390E+06  1.191293E+06  1.212389E+06  1.222613E+06
 1.197738E+06  1.198994E+06  1.211703E+06  1.168608E+06  1.166076E+06  1.161540E+06  1.165324E+06  1.176713E+06  1.151649E+06  1.175662E+06
 1.178020E+06  1.192754E+06  1.177713E+06  1.190344E+06  1.173547E+06  1.201601E+06  1.000001E+06  1.000001E+06  1.000001E+06  1.000001E+06
 1.000001E+06  1.000001E+06  1.000001E+06  1.000001E+06  1.000001E+06  1.000001E+06  1.000001E+06  1.000001E+06  1.000001E+06  1.000001E+06
 1.000001E+06  1.000001E+06  1.000001E+06  1.000001E+06  1.000001E+06  1.000001E+06  1.000001E+06  1.000001E+06  1.000001E+06  1.000001E+06
 1.000001E+06  1.000001E+06  1.000001E+06  1.000001E+06  1.000001E+06  1.000001E+06  1.000001E+06  1.000001E+06  1.000001E+06  1.000001E+06
 1.000001E+06  1.000001E+06  1.000001E+06  1.000001E+06  1.000001E+06  1.000001E+06  1.000001E+06  1.000001E+06  1.000001E+06  1.000001E+06
 1.000001E+06  1.000001E+06  1.000001E+06  1.000001E+06  1.000001E+06  1.000001E+06  1.000001E+06  1.000001E+06  1.000001E+06  1.000001E+06
 1.000001E+06  1.000001E+06  1.000001E+06  1.000001E+06  1.000001E+06  1.000001E+06  1.000001E+06  1.000001E+06  1.000001E+06  1.000001E+06
 1.000001E+06  1.000001E+06  1.000001E+06  1.000001E+06  1.000001E+06  1.000001E+06  1.000001E+06  1.000001E+06  1.000001E+06  1.000001E+06
 1.000001E+06  1.000001E+06  1.000001E+06  1.000001E+06  1.000001E+06  1.000001E+06  1.000001E+06  1.000001E+06  1.000001E+06  1.000001E+06
 1.000001E+06  1.000001E+06  1.000001E+06  1.000001E+06  1.000001E+06  1.000001E+06  1.000001E+06  1.000001E+06  1.000001E+06  1.000001E+06
 1.000001E+06  1.000001E+06  1.000001E+06  1.000001E+06  1.000001E+06  1.000001E+06  1.000001E+06  1.000001E+06  1.000001E+06  1.000001E+06
 1.000001E+06  1.000001E+06  1.000001E+06  1.000001E+06  1.000001E+06  1.000001E+06  1.000001E+06  1.000001E+06  1.000001E+06  1.000001E+06
 1.000001E+06  1.000001E+06  1.000001E+06  1.000001E+06  1.000001E+06  1.000001E+06  1.000001E+06  1.000001E+06  1.000001E+06  1.000001E+06
 1.000001E+06  1.000001E+06  1.000001E+06  1.000001E+06  1.000001E+06  1.949344E+06  1.950439E+06  1.948368E+06  1.948365E+06  1.950369E+06
 1.948334E+06  1.950510E+06  1.950416E+06  1.950392E+06  1.950119E+06  1.677636E+06  1.667454E+06  1.693069E+06  1.691862E+06  1.657937E+06
 1.662511E+06  1.667144E+06  1.661958E+06  1.666950E+06  1.660957E+06  1.982513E+06  1.981440E+06  1.981297E+06  1.981334E+06  1.983598E+06
 1.983597E+06  1.983565E+06  1.983593E+06  1.983594E+06  1.983392E+06  1.665352E+06  1.686478E+06  1.688742E+06  1.669409E+06  1.668242E+06
 1.658695E+06  1.648008E+06  1.664521E+06  1.661749E+06  1.949278E+06  1.950403E+06  1.948368E+06  1.948380E+06  1.950429E+06  1.948419E+06
 1.950456E+06  1.950402E+06  1.950428E+06  1.950216E+06  1.982532E+06  1.981463E+06  1.981505E+06  1.981313E+06  1.981334E+06  1.983593E+06
 1.983594E+06  1.983596E+06  1.983589E+06  1.983383E+06  1.692080E+06  1.689711E+06  1.691030E+06  1.685228E+06  1.641664E+06  1.681176E+06
 1.680067E+06  1.674390E+06  1.636771E+06  1.949280E+06  1.950466E+06  1.950429E+06  1.950447E+06  1.950455E+06  1.950453E+06  1.950453E+06
 1.950455E+06  1.950435E+06  1.948606E+06  1.982520E+06  1.981455E+06  1.983587E+06  1.981323E+06  1.981515E+06  1.981327E+06  1.983419E+06
 1.983601E+06  1.983597E+06  1.983420E+06  1.675464E+06  1.678613E+06  1.680222E+06  1.652265E+06  1.682462E+06  1.693142E+06  1.653336E+06
 1.652468E+06  1.950363E+06  1.950403E+06  1.950425E+06  1.950428E+06  1.950446E+06  1.950464E+06  1.950440E+06  1.948524E+06  1.948421E+06
 1.948607E+06  1.982557E+06  1.981478E+06  1.983596E+06  1.981332E+06  1.981523E+06  1.981328E+06  1.983384E+06  1.983612E+06  1.983580E+06
 1.983377E+06  1.501213E+06  1.793740E+06  1.494860E+06  1.523411E+06  1.775944E+06  1.806556E+06  1.505454E+06  1.945390E+06  1.950329E+06
 1.950590E+06  1.507032E+06  1.797730E+06  1.792115E+06  1.540247E+06  1.562598E+06  1.949937E+06  1.526538E+06  1.949595E+06  1.681281E+06
 1.951898E+06  1.545290E+06  1.492906E+06  1.803978E+06  1.616321E+06  1.793226E+06  1.951016E+06  1.951192E+06  1.788407E+06  1.951902E+06
 1.792966E+06  1.602768E+06  1.545231E+06  1.509834E+06  1.595510E+06  1.544934E+06  1.951236E+06  1.625868E+06  1.951190E+06  1.950356E+06
 1.983430E+06  1.983295E+06  1.800099E+06  1.983311E+06  1.951405E+06  1.951183E+06  1.950483E+06  1.577093E+06  1.517393E+06  1.951080E+06
 1.983312E+06  1.743947E+06  1.805710E+06  1.788254E+06  1.781881E+06  1.950633E+06  1.977429E+06  1.607211E+06  1.464435E+06  1.010307E+06
 1.557040E+06  1.584322E+06  1.727203E+06  1.784535E+06  1.948156E+06  1.523053E+06  1.951518E+06  1.950322E+06  1.758058E+06  1.984726E+06
 1.983543E+06  1.983465E+06  1.983441E+06  1.951298E+06  1.983939E+06  1.950081E+06  1.950092E+06  1.950910E+06  1.951190E+06  1.983140E+06
 1.590390E+06  1.010794E+06  1.504433E+06  1.010223E+06  1.470296E+06  1.949635E+06  1.951145E+06  1.519974E+06  1.950024E+06  1.762338E+06
 1.984195E+06  1.720056E+06  1.714874E+06  1.949613E+06  1.765595E+06  1.761909E+06  1.983456E+06  1.540200E+06  1.536810E+06  1.445636E+06
 1.709763E+06  1.951048E+06  1.983661E+06  1.951407E+06  1.790469E+06  1.950621E+06  1.982919E+06  1.982286E+06  1.982158E+06  1.984354E+06
 1.983414E+06  1.950498E+06  1.950464E+06  1.782020E+06  1.949095E+06  1.951600E+06  1.732017E+06  1.983835E+06  1.984387E+06  1.984361E+06
 1.578217E+06  1.575653E+06  1.567417E+06  1.011278E+06  1.010719E+06  1.613066E+06  1.448244E+06  1.620686E+06  1.595242E+06  1.577645E+06
 1.560096E+06  1.561206E+06  1.749328E+06  1.950420E+06  1.951207E+06  1.984410E+06  1.984368E+06  1.791700E+06  1.784599E+06  1.950447E+06
 1.950385E+06  1.751913E+06  1.947458E+06  1.468592E+06  1.500542E+06  1.570460E+06  1.789612E+06  1.951856E+06  1.982380E+06  1.983588E+06
 1.983960E+06  1.984274E+06  1.951488E+06  1.951516E+06  1.950151E+06  1.950951E+06  1.807562E+06  1.793675E+06  1.950596E+06  1.950534E+06
 1.716779E+06  1.984309E+06  1.983422E+06  1.578391E+06  1.011911E+06  1.011239E+06  1.532218E+06  1.596950E+06  1.533249E+06  1.581084E+06
 1.573812E+06  1.983325E+06  1.982627E+06  1.984694E+06  1.950287E+06  1.759046E+06  1.950175E+06  1.757226E+06  1.950466E+06  1.951862E+06
 1.788073E+06  1.950255E+06  1.950046E+06  1.983293E+06  1.010412E+06  1.009866E+06  1.531195E+06  1.983086E+06  1.982786E+06  1.949891E+06
 1.773746E+06  1.798574E+06  1.950348E+06  1.950522E+06  1.444589E+06  1.651584E+06  1.462031E+06  1.561422E+06  1.591942E+06  1.495658E+06
 1.583004E+06  1.522599E+06  1.983600E+06  1.984056E+06  1.983336E+06  1.983197E+06  1.983422E+06  1.984052E+06  1.950920E+06  1.950043E+06
 1.758703E+06  1.951428E+06  1.712292E+06  1.733945E+06  1.950389E+06  1.824557E+06  1.950037E+06  1.951529E+06  1.824855E+06  1.983367E+06
 1.984094E+06  1.629197E+06  1.570409E+06  1.983686E+06  1.982714E+06  1.984716E+06  1.983279E+06  1.758835E+06  1.730529E+06  1.950396E+06
 1.818117E+06  1.950576E+06  1.737933E+06  1.505494E+06  1.542860E+06  1.567587E+06  1.565799E+06  1.558835E+06  1.983922E+06  1.983438E+06
 1.983525E+06  1.949686E+06  1.951190E+06  1.950936E+06  1.950373E+06  1.950363E+06  1.765979E+06  1.951140E+06  1.950381E+06  1.984738E+06
 1.983610E+06  1.634322E+06  1.546822E+06  1.982674E+06  1.982942E+06  1.984210E+06  1.751507E+06  1.709439E+06  1.950393E+06  1.809855E+06
 1.754593E+06  1.951080E+06  1.797101E+06  1.950775E+06  1.984333E+06  1.534527E+06  1.534654E+06  1.577523E+06  1.500742E+06  1.541244E+06
 1.983627E+06  1.983490E+06  1.950318E+06  1.951141E+06  1.760559E+06  1.795761E+06  1.760672E+06  1.950151E+06  1.772401E+06  1.745191E+06
 1.984735E+06  1.636860E+06  1.530423E+06  1.984047E+06  1.983436E+06  1.984200E+06  1.984444E+06  1.739402E+06  1.750814E+06  1.951865E+06
 1.808654E+06  1.950369E+06  1.951119E+06  1.725861E+06  1.754706E+06  1.951586E+06  1.726383E+06  1.951243E+06  1.950373E+06  1.983524E+06
 1.983357E+06  1.586119E+06  1.983397E+06  1.984165E+06  1.950455E+06  1.950997E+06  1.950047E+06  1.725040E+06  1.011761E+06  1.536075E+06
 1.983585E+06  1.983492E+06  1.983267E+06  1.982529E+06  1.786876E+06  1.983771E+06  1.984372E+06  1.983445E+06  1.726564E+06  1.983978E+06
 1.983477E+06  1.984726E+06  1.983393E+06  1.983229E+06  1.984371E+06  1.983486E+06  1.983682E+06  1.983677E+06  1.983400E+06  1.982965E+06
 1.423629E+06  1.778010E+06  1.640439E+06  1.822579E+06  1.534595E+06  1.982473E+06  1.837206E+06  1.982286E+06  1.984459E+06  1.977685E+06
 1.829322E+06  1.976469E+06  1.984060E+06  1.985854E+06  1.952321E+06  1.822156E+06  1.010745E+06  1.948752E+06  1.843231E+06  1.011375E+06


SCALARS Permeability_X       float 1
LOOKUP_TABLE default
 1.000000E-12  1.000000E-12  1.000000E-12  1.000000E-12  1.000000E-12  1.000000E-12  1.000000E-12  1.000000E-12  1.000000E-12  1.000000E-12
 1.000000E-12  1.000000E-12  1.000000E-12  1.000000E-12  1.000000E-12  1.000000E-12  1.000000E-12  1.000000E-12  1.000000E-12  1.000000E-12
 1.000000E-12  1.000000E-12  1.000000E-12  1.000000E-12  1.000000E-12  1.000000E-12  1.000000E-12  1.000000E-12  1.000000E-12  1.000000E-12
 1.000000E-12  1.000000E-12  1.000000E-12  1.000000E-12  1.000000E-12  1.000000E-12  1.000000E-12  1.000000E-12  1.000000E-12  1.000000E-12
 1.000000E-12  1.000000E-12  1.000000E-12  1.000000E-12  1.000000E-12  1.000000E-12  1.000000E-12  1.000000E-12  1.000000E-12  1.000000E-12
 1.000000E-12  1.000000E-12  1.000000E-12  1.000000E-12  1.000000E-12  1.000000E-12  1.000000E-12  1.000000E-12  1.000000E-12  1.000000E-12
 1.000000E-12  1.000000E-12  1.000000E-12  1.000000E-12  1.000000E-12  1.000000E-12  1.000000E-12  1.000000E-12  1.000000E-12  1.000000E-12
 1.000000E-12  1.000000E-12  1.000000E-12  1.000000E-12  1.000000E-12  1.000000E-12  1.000000E-12  1.000000E-12  1.000000E-12  1.000000E-12
 1.000000E-12  1.000000E-12  1.000000E-12  1.000000E-12  1.000000E-12  1.000000E-12  1.000000E-12  1.000000E-12  1.000000E-12  1.000000E-12
 1.000000E-12  1.000000E-12  1.000000E-12  1.000000E-12  1.000000E-12  1.000000E-12  1.000000E-12  1.000000E-12  1.000000E-12  1.000000E-12
 1.000000E-12  1.000000E-12  1.000000E-12  1.000000E-12  1.000000E-12  1.000000E-12  1.000000E-12  1.000000E-12  1.000000E-12  1.000000E-12
 1.000000E-12  1.000000E-12  1.000000E-12  1.000000E-12  1.000000E-12  1.000000E-12  1.000000E-12  1.000000E-12  1.000000E-12  1.000000E-12
 1.000000E-12  1.000000E-12  1.000000E-12  1.000000E-12  1.000000E-12  1.000000E-12  1.000000E-12  1.000000E-12  1.000000E-12  1.000000E-12
 1.000000E-12  1.000000E-12  1.000000E-12  1.000000E-12  1.000000E-12  1.000000E-12  1.000000E-12  1.000000E-12  1.000000E-12  1.000000E-12
 1.000000E-12  1.000000E-12  1.000000E-12  1.000000E-12  1.000000E-12  1.000000E-12  1.000000E-12  1.000000E-12  1.000000E-12  1.000000E-12
 1.000000E-12  1.000000E-12  1.000000E-12  1.000000E-12  1.000000E-12  1.000000E-12  1.000000E-12  1.000000E-12  1.000000E-12  1.000000E-12
 1.000000E-12  1.000000E-12  1.000000E-12  1.000000E-12  1.000000E-12  1.000000E-12  1.000000E-12  1.000000E-12  1.000000E-12  1.000000E-12
 1.000000E-12  1.000000E-12  1.000000E-12  1.000000E-12  1.000000E-12  1.000000E-12  1.000000E-12  1.000000E-12  1.000000E-12  1.000000E-12
 1.000000E-12  1.000000E-12  1.000000E-12  1.000000E-12  1.000000E-12  1.000000E-12  1.000000E-12  1.000000E-12  1.000000E-12  1.000000E-12
 1.000000E-12  1.000000E-12  1.000000E-12  1.000000E-12  1.000000E-12  1.000000E-12  1.000000E-12  1.000000E-12  1.000000E-12  1.000000E-12
 1.000000E-12  1.000000E-12  1.000000E-12  1.000000E-12  1.000000E-12  1.000000E-12  1.000000E-12  1.000000E-12  1.000000E-12  1.000000E-12
 1.000000E-12  1.000000E-12  1.000000E-12  1.000000E-12  1.000000E-12  1.000000E-12  1.000000E-12  1.000000E-12  1.000000E-12  1.000000E-12
 1.000000E-12  1.000000E-12  1.000000E-12  1.000000E-12  1.000000E-12  1.000000E-12  1.000000E-12  1.000000E-12  1.000000E-12  1.000000E-12
 1.000000E-12  1.000000E-12  1.000000E-12  1.000000E-12  1.000000E-12  1.000000E-12  1.000000E-12  1.000000E-12  1.000000E-12  1.000000E-12
 1.000000E-12  1.000000E-12  1.000000E-12  1.000000E-12  1.000000E-12  1.000000E-12  1.000000E-12  1.000000E-12  1.000000E-12  1.000000E-12
 1.000000E-12  1.000000E-12  1.000000E-12  1.000000E-12  1.000000E-12  1.000000E-12  1.000000E-12  1.000000E-12  1.000000E-11  1.000000E-11
 1.000000E-11  1.000000E-11  1.000000E-11  1.000000E-11  1.000000E-11  1.000000E-11  1.000000E-11  1.000000E-11  1.000000E-11  1.000000E-11
 1.000000E-11  1.000000E-11  1.000000E-11  1.000000E-11  1.000000E-11  1.000000E-11  1.000000E-11  1.000000E-11  1.000000E-11  1.000000E-11
 1.000000E-11  1.000000E-11  1.000000E-11  1.000000E-11  1.000000E-11  1.000000E-11  1.000000E-11  1.000000E-11  1.000000E-11  1.000000E-11
 1.000000E-11  1.000000E-11  1.000000E-11  1.000000E-11  1.000000E-11  1.000000E-11  1.000000E-11  1.000000E-11  1.000000E-11  1.000000E-11
 1.000000E-11  1.000000E-11  1.000000E-11  1.000000E-11  1.000000E-11  1.000000E-11  1.000000E-11  1.000000E-11  1.000000E-11  1.000000E-11
 1.000000E-11  1.000000E-11  1.000000E-11  1.000000E-11  1.000000E-11  1.000000E-11  1.000000E-11  1.000000E-11  1.000000E-11  1.000000E-11
 1.000000E-11  1.000000E-11  1.000000E-11  1.000000E-11  1.000000E-11  1.000000E-11  1.000000E-11  1.000000E-11  1.000000E-11  1.000000E-11
 1.000000E-11  1.000000E-11  1.000000E-11  1.000000E-11  1.000000E-11  1.000000E-11  1.000000E-11  1.000000E-11  1.000000E-11  1.000000E-11
 1.000000E-11  1.000000E-11  1.000000E-11  1.000000E-11  1.000000E-11  1.000000E-11  1.000000E-11  1.000000E-11  1.000000E-11  1.000000E-11
 1.000000E-11  1.000000E-11  1.000000E-11  1.000000E-11  1.000000E-11  1.000000E-11  1.000000E-11  1.000000E-11  1.000000E-11  1.000000E-11
 1.000000E-11  1.000000E-11  1.000000E-11  1.000000E-11  1.000000E-11  1.000000E-11  1.000000E-11  1.000000E-11  1.000000E-11  1.000000E-11
 1.000000E-11  1.000000E-11  1.000000E-11  1.000000E-11  1.000000E-11  1.000000E-11  1.000000E-11  1.000000E-11  1.000000E-11  1.000000E-11
 1.000000E-11  1.000000E-11  1.000000E-11  1.000000E-11  1.000000E-11  1.000000E-11  1.000000E-11  1.000000E-14  1.000000E-14  1.000000E-14
 1.000000E-14  1.000000E-14  1.000000E-14  1.000000E-14  1.000000E-14  1.000000E-14  1.000000E-14  1.000000E-14  1.000000E-14  1.000000E-14
 1.000000E-14  1.000000E-14  1.000000E-14  1.000000E-14  1.000000E-14  1.000000E-14  1.000000E-14  1.000000E-14  1.000000E-14  1.000000E-14
 1.000000E-14  1.000000E-14  1.000000E-14  1.000000E-14  1.000000E-14  1.000000E-14  1.000000E-14  1.000000E-14  1.000000E-14  1.000000E-14
 1.000000E-14  1.000000E-14  1.000000E-14  1.000000E-14  1.000000E-14  1.000000E-14  1.000000E-14  1.000000E-14  1.000000E-14  1.000000E-14
 1.000000E-14  1.000000E-14  1.000000E-14  1.000000E-14  1.000000E-14  1.000000E-14  1.000000E-14  1.000000E-14  1.000000E-14  1.000000E-14
 1.000000E-14  1.000000E-14  1.000000E-14  1.000000E-14  1.000000E-14  1.000000E-14  1.000000E-14  1.000000E-14  1.000000E-14  1.000000E-14
 1.000000E-14  1.000000E-14  1.000000E-14  1.000000E-14  1.000000E-14  1.000000E-14  1.000000E-14  1.000000E-14  1.000000E-14  1.000000E-14
 1.000000E-14  1.000000E-14  1.000000E-14  1.000000E-14  1.000000E-14  1.000000E-14  1.000000E-14  1.000000E-14  1.000000E-14  1.000000E-14
 1.000000E-14  1.000000E-14  1.000000E-14  1.000000E-14  1.000000E-14  1.000000E-14  1.000000E-14  1.000000E-14  1.000000E-14  1.000000E-14
 1.000000E-14  1.000000E-14  1.000000E-14  1.000000E-14  1.000000E-14  1.000000E-14  1.000000E-14  1.000000E-14  1.000000E-14  1.000000E-14
 1.000000E-14  1.000000E-14  1.000000E-14  1.000000E-14  1.000000E-14  1.000000E-14  1.000000E-14  1.000000E-14  1.000000E-14  1.000000E-14
 1.000000E-14  1.000000E-14  1.000000E-14  1.000000E-14  1.000000E-14  1.000000E-14  1.000000E-14  1.000000E-14  1.000000E-14  1.000000E-14
 1.000000E-14  1.000000E-14  1.000000E-14  1.000000E-14  1.000000E-14  1.000000E-14  5.000000E-12  5.000000E-12  5.000000E-12  5.000000E-12
 5.000000E-12  5.000000E-12  5.000000E-12  5.000000E-12  5.000000E-12  5.000000E-12  5.000000E-12  5.000000E-12  5.000000E-12  5.000000E-12
 5.000000E-12  5.000000E-12  5.000000E-12  5.000000E-12  5.000000E-12  5.000000E-12  5.000000E-12  5.000000E-12  5.000000E-12  5.000000E-12
 5.000000E-12  5.000000E-12  5.000000E-12  5.000000E-12  5.000000E-12  5.000000E-12  5.000000E-12  5.000000E-12  5.000000E-12  5.000000E-12
 5.000000E-12  5.000000E-12  5.000000E-12  5.000000E-12  5.000000E-12  5.000000E-12  5.000000E-12  5.000000E-12  5.000000E-12  5.000000E-12
 5.000000E-12  5.000000E-12  5.000000E-12  5.000000E-12  5.000000E-12  5.000000E-12  5.000000E-12  5.000000E-12  5.000000E-12  5.000000E-12
 5.000000E-12  5.000000E-12  5.000000E-12  5.000000E-12  5.000000E-12  5.000000E-12  5.000000E-12  5.000000E-12  5.000000E-12  5.000000E-12
 5.000000E-12  5.000000E-12  5.000000E-12  5.000000E-12  5.000000E-12  5.000000E-12  5.000000E-12  5.000000E-12  5.000000E-12  5.000000E-12
 5.000000E-12  5.000000E-12  5.000000E-12  5.000000E-12  5.000000E-12  5.000000E-12  5.000000E-12  5.000000E-12  5.000000E-12  5.000000E-12
 5.000000E-12  5.000000E-12  5.000000E-12  5.000000E-12  5.000000E-12  5.000000E-12  5.000000E-12  5.000000E-12  5.000000E-12  5.000000E-12
 5.000000E-12  5.000000E-12  5.000000E-12  5.000000E-12  5.000000E-12  5.000000E-12  5.000000E-12  5.000000E-12  5.000000E-12  5.000000E-12
 5.000000E-12  5.000000E-12  5.000000E-12  5.000000E-12  5.000000E-12  5.000000E-12  5.000000E-12  5.000000E-12  5.000000E-12  5.000000E-12
 5.000000E-12  5.000000E-12  5.000000E-12  5.000000E-12  5.000000E-12  5.000000E-12  5.000000E-12  5.000000E-12  5.000000E-12  5.000000E-12
 5.000000E-12  5.000000E-12  5.000000E-12  5.000000E-12  5.000000E-12  1.000000E-11  1.000000E-11  1.000000E-11  1.000000E-11  1.000000E-11
 1.000000E-11  1.000000E-11  1.000000E-11  1.000000E-11  1.000000E-11  1.000000E-14  1.000000E-14  1.000000E-14  1.000000E-14  1.000000E-14
 1.000000E-14  1.000000E-14  1.000000E-14  1.000000E-14  1.000000E-14  1.000000E-12  1.000000E-12  1.000000E-12  1.000000E-12  1.000000E-12
 1.000000E-12  1.000000E-12  1.000000E-12  1.000000E-12  1.000000E-12  1.000000E-14  1.000000E-14  1.000000E-14  1.000000E-14  1.000000E-14
 1.000000E-14  1.000000E-14  1.000000E-14  1.000000E-14  1.000000E-11  1.000000E-11  1.000000E-11  1.000000E-11  1.000000E-11  1.000000E-11
 1.000000E-11  1.000000E-11  1.000000E-11  1.000000E-11  1.000000E-12  1.000000E-12  1.000000E-12  1.000000E-12  1.000000E-12  1.000000E-12
 1.000000E-12  1.000000E-12  1.000000E-12  1.000000E-12  1.000000E-14  1.000000E-14  1.000000E-14  1.000000E-14  1.000000E-14  1.000000E-14
 1.000000E-14  1.000000E-14  1.000000E-14  1.000000E-11  1.000000E-11  1.000000E-11  1.000000E-11  1.000000E-11  1.000000E-11  1.000000E-11
 1.000000E-11  1.000000E-11  1.000000E-11  1.000000E-12  1.000000E-12  1.000000E-12  1.000000E-12  1.000000E-12  1.000000E-12  1.000000E-12
 1.000000E-12  1.000000E-12  1.000000E-12  1.000000E-14  1.000000E-14  1.000000E-14  1.000000E-14  1.000000E-14  1.000000E-14  1.000000E-14
 1.000000E-14  1.000000E-11  1.000000E-11  1.000000E-11  1.000000E-11  1.000000E-11  1.000000E-11  1.000000E-11  1.000000E-11  1.000000E-11
 1.000000E-11  1.000000E-12  1.000000E-12  1.000000E-12  1.000000E-12  1.000000E-12  1.000000E-12  1.000000E-12  1.000000E-12  1.000000E-12
 1.000000E-12  1.000000E-14  1.000000E-14  1.000000E-14  1.000000E-14  1.000000E-14  1.000000E-14  1.000000E-14  1.000000E-11  1.000000E-11
 1.000000E-11  1.000000E-14  1.000000E-14  1.000000E-14  1.000000E-14  1.000000E-14  1.000000E-11  1.000000E-14  1.000000E-11  1.000000E-14
 1.000000E-11  1.000000E-14  1.000000E-14  1.000000E-14  1.000000E-14  1.000000E-14  1.000000E-11  1.000000E-11  1.000000E-14  1.000000E-11
 1.000000E-14  1.000000E-14  1.000000E-14  1.000000E-14  1.000000E-14  1.000000E-14  1.000000E-11  1.000000E-14  1.000000E-11  1.000000E-11
 1.000000E-12  1.000000E-12  1.000000E-14  1.000000E-12  1.000000E-11  1.000000E-11  1.000000E-11  1.000000E-14  1.000000E-14  1.000000E-11
 1.000000E-12  1.000000E-14  1.000000E-14  1.000000E-14  1.000000E-14  1.000000E-11  1.000000E-12  1.000000E-14  1.000000E-14  5.000000E-12
 1.000000E-14  1.000000E-14  1.000000E-14  1.000000E-14  1.000000E-11  1.000000E-14  1.000000E-11  1.000000E-11  1.000000E-14  1.000000E-12
 1.000000E-12  1.000000E-12  1.000000E-12  1.000000E-11  1.000000E-12  1.000000E-11  1.000000E-11  1.000000E-11  1.000000E-11  1.000000E-12
 1.000000E-14  5.000000E-12  1.000000E-14  5.000000E-12  1.000000E-14  1.000000E-11  1.000000E-11  1.000000E-14  1.000000E-11  1.000000E-14
 1.000000E-12  1.000000E-14  1.000000E-14  1.000000E-11  1.000000E-14  1.000000E-14  1.000000E-12  1.000000E-14  1.000000E-14  1.000000E-14
 1.000000E-14  1.000000E-11  1.000000E-12  1.000000E-11  1.000000E-14  1.000000E-11  1.000000E-12  1.000000E-12  1.000000E-12  1.000000E-12
 1.000000E-12  1.000000E-11  1.000000E-11  1.000000E-14  1.000000E-11  1.000000E-11  1.000000E-14  1.000000E-12  1.000000E-12  1.000000E-12
 1.000000E-14  1.000000E-14  1.000000E-14  5.000000E-12  5.000000E-12  1.000000E-14  1.000000E-14  1.000000E-14  1.000000E-14  1.000000E-14
 1.000000E-14  1.000000E-14  1.000000E-14  1.000000E-11  1.000000E-11  1.000000E-12  1.000000E-12  1.000000E-14  1.000000E-14  1.000000E-11
 1.000000E-11  1.000000E-14  1.000000E-11  1.000000E-14  1.000000E-14  1.000000E-14  1.000000E-14  1.000000E-11  1.000000E-12  1.000000E-12
 1.000000E-12  1.000000E-12  1.000000E-11  1.000000E-11  1.000000E-11  1.000000E-11  1.000000E-14  1.000000E-14  1.000000E-11  1.000000E-11
 1.000000E-14  1.000000E-12  1.000000E-12  1.000000E-14  5.000000E-12  5.000000E-12  1.000000E-14  1.000000E-14  1.000000E-14  1.000000E-14
 1.000000E-14  1.000000E-12  1.000000E-12  1.000000E-12  1.000000E-11  1.000000E-14  1.000000E-11  1.000000E-14  1.000000E-11  1.000000E-11
 1.000000E-14  1.000000E-11  1.000000E-11  1.000000E-12  5.000000E-12  5.000000E-12  1.000000E-14  1.000000E-12  1.000000E-12  1.000000E-11
 1.000000E-14  1.000000E-14  1.000000E-11  1.000000E-11  1.000000E-14  1.000000E-14  1.000000E-14  1.000000E-14  1.000000E-14  1.000000E-14
 1.000000E-14  1.000000E-14  1.000000E-12  1.000000E-12  1.000000E-12  1.000000E-12  1.000000E-12  1.000000E-12  1.000000E-11  1.000000E-11
 1.000000E-14  1.000000E-11  1.000000E-14  1.000000E-14  1.000000E-11  1.000000E-14  1.000000E-11  1.000000E-11  1.000000E-14  1.000000E-12
 1.000000E-12  1.000000E-14  1.000000E-14  1.000000E-12  1.000000E-12  1.000000E-12  1.000000E-12  1.000000E-14  1.000000E-14  1.000000E-11
 1.000000E-14  1.000000E-11  1.000000E-14  1.000000E-14  1.000000E-14  1.000000E-14  1.000000E-14  1.000000E-14  1.000000E-12  1.000000E-12
 1.000000E-12  1.000000E-11  1.000000E-11  1.000000E-11  1.000000E-11  1.000000E-11  1.000000E-14  1.000000E-11  1.000000E-11  1.000000E-12